ITEM: TIMESTEP
0
ITEM: NUMBER OF ATOMS
1000
ITEM: BOX BOUNDS pp pp pp
0.0000000000000000e+00 2.7155000000000001e+01
0.0000000000000000e+00 2.7155000000000001e+01
0.0000000000000000e+00 2.7155000000000001e+01
ITEM: ATOMS id type x y z 
1 1 0 0 0 
5 1 1.35775 1.35775 1.35775 
9 1 5.431 0 0 
13 1 6.78875 1.35775 1.35775 
17 1 10.862 0 0 
21 1 12.2197 1.35775 1.35775 
25 1 16.293 0 0 
29 1 17.6507 1.35775 1.35775 
33 1 21.724 0 0 
37 1 23.0817 1.35775 1.35775 
4 1 2.7155 2.7155 0 
8 1 4.07325 4.07325 1.35775 
12 1 8.1465 2.7155 0 
16 1 9.50425 4.07325 1.35775 
20 1 13.5775 2.7155 0 
24 1 14.9352 4.07325 1.35775 
28 1 19.0085 2.7155 0 
32 1 20.3663 4.07325 1.35775 
36 1 24.4395 2.7155 0 
40 1 25.7973 4.07325 1.35775 
41 1 0 5.431 0 
45 1 1.35775 6.78875 1.35775 
49 1 5.431 5.431 0 
53 1 6.78875 6.78875 1.35775 
57 1 10.862 5.431 0 
61 1 12.2197 6.78875 1.35775 
65 1 16.293 5.431 0 
69 1 17.6507 6.78875 1.35775 
73 1 21.724 5.431 0 
77 1 23.0817 6.78875 1.35775 
44 1 2.7155 8.1465 0 
48 1 4.07325 9.50425 1.35775 
52 1 8.1465 8.1465 0 
56 1 9.50425 9.50425 1.35775 
60 1 13.5775 8.1465 0 
64 1 14.9352 9.50425 1.35775 
68 1 19.0085 8.1465 0 
72 1 20.3663 9.50425 1.35775 
76 1 24.4395 8.1465 0 
80 1 25.7973 9.50425 1.35775 
81 1 0 10.862 0 
85 1 1.35775 12.2197 1.35775 
89 1 5.431 10.862 0 
93 1 6.78875 12.2197 1.35775 
97 1 10.862 10.862 0 
101 1 12.2197 12.2197 1.35775 
105 1 16.293 10.862 0 
109 1 17.6507 12.2197 1.35775 
113 1 21.724 10.862 0 
117 1 23.0817 12.2197 1.35775 
84 1 2.7155 13.5775 0 
92 1 8.1465 13.5775 0 
100 1 13.5775 13.5775 0 
108 1 19.0085 13.5775 0 
116 1 24.4395 13.5775 0 
121 1 0 16.293 0 
88 1 4.07325 14.9352 1.35775 
129 1 5.431 16.293 0 
96 1 9.50425 14.9352 1.35775 
137 1 10.862 16.293 0 
104 1 14.9352 14.9352 1.35775 
145 1 16.293 16.293 0 
112 1 20.3663 14.9352 1.35775 
153 1 21.724 16.293 0 
120 1 25.7973 14.9352 1.35775 
125 1 1.35775 17.6507 1.35775 
124 1 2.7155 19.0085 0 
133 1 6.78875 17.6507 1.35775 
132 1 8.1465 19.0085 0 
141 1 12.2197 17.6507 1.35775 
140 1 13.5775 19.0085 0 
148 1 19.0085 19.0085 0 
149 1 17.6507 17.6507 1.35775 
156 1 24.4395 19.0085 0 
157 1 23.0817 17.6507 1.35775 
161 1 0 21.724 0 
128 1 4.07325 20.3663 1.35775 
169 1 5.431 21.724 0 
136 1 9.50425 20.3663 1.35775 
177 1 10.862 21.724 0 
144 1 14.9352 20.3663 1.35775 
185 1 16.293 21.724 0 
152 1 20.3663 20.3663 1.35775 
193 1 21.724 21.724 0 
160 1 25.7973 20.3663 1.35775 
165 1 1.35775 23.0817 1.35775 
164 1 2.7155 24.4395 0 
173 1 6.78875 23.0817 1.35775 
172 1 8.1465 24.4395 0 
181 1 12.2197 23.0817 1.35775 
180 1 13.5775 24.4395 0 
188 1 19.0085 24.4395 0 
189 1 17.6507 23.0817 1.35775 
196 1 24.4395 24.4395 0 
197 1 23.0817 23.0817 1.35775 
168 1 4.07325 25.7973 1.35775 
176 1 9.50425 25.7973 1.35775 
184 1 14.9352 25.7973 1.35775 
192 1 20.3663 25.7973 1.35775 
200 1 25.7973 25.7973 1.35775 
3 1 2.7155 0 2.7155 
7 1 4.07325 1.35775 4.07325 
11 1 8.1465 0 2.7155 
15 1 9.50425 1.35775 4.07325 
19 1 13.5775 0 2.7155 
23 1 14.9352 1.35775 4.07325 
27 1 19.0085 0 2.7155 
31 1 20.3663 1.35775 4.07325 
35 1 24.4395 0 2.7155 
39 1 25.7973 1.35775 4.07325 
2 1 0 2.7155 2.7155 
6 1 1.35775 4.07325 4.07325 
10 1 5.431 2.7155 2.7155 
14 1 6.78875 4.07325 4.07325 
18 1 10.862 2.7155 2.7155 
22 1 12.2197 4.07325 4.07325 
26 1 16.293 2.7155 2.7155 
30 1 17.6507 4.07325 4.07325 
34 1 21.724 2.7155 2.7155 
38 1 23.0817 4.07325 4.07325 
43 1 2.7155 5.431 2.7155 
47 1 4.07325 6.78875 4.07325 
51 1 8.1465 5.431 2.7155 
55 1 9.50425 6.78875 4.07325 
59 1 13.5775 5.431 2.7155 
63 1 14.9352 6.78875 4.07325 
67 1 19.0085 5.431 2.7155 
71 1 20.3663 6.78875 4.07325 
75 1 24.4395 5.431 2.7155 
79 1 25.7973 6.78875 4.07325 
42 1 0 8.1465 2.7155 
46 1 1.35775 9.50425 4.07325 
50 1 5.431 8.1465 2.7155 
54 1 6.78875 9.50425 4.07325 
58 1 10.862 8.1465 2.7155 
62 1 12.2197 9.50425 4.07325 
66 1 16.293 8.1465 2.7155 
70 1 17.6507 9.50425 4.07325 
74 1 21.724 8.1465 2.7155 
78 1 23.0817 9.50425 4.07325 
83 1 2.7155 10.862 2.7155 
87 1 4.07325 12.2197 4.07325 
91 1 8.1465 10.862 2.7155 
95 1 9.50425 12.2197 4.07325 
99 1 13.5775 10.862 2.7155 
103 1 14.9352 12.2197 4.07325 
107 1 19.0085 10.862 2.7155 
111 1 20.3663 12.2197 4.07325 
115 1 24.4395 10.862 2.7155 
119 1 25.7973 12.2197 4.07325 
82 1 0 13.5775 2.7155 
90 1 5.431 13.5775 2.7155 
98 1 10.862 13.5775 2.7155 
106 1 16.293 13.5775 2.7155 
114 1 21.724 13.5775 2.7155 
86 1 1.35775 14.9352 4.07325 
123 1 2.7155 16.293 2.7155 
94 1 6.78875 14.9352 4.07325 
131 1 8.1465 16.293 2.7155 
102 1 12.2197 14.9352 4.07325 
139 1 13.5775 16.293 2.7155 
110 1 17.6507 14.9352 4.07325 
147 1 19.0085 16.293 2.7155 
118 1 23.0817 14.9352 4.07325 
155 1 24.4395 16.293 2.7155 
122 1 0 19.0085 2.7155 
127 1 4.07325 17.6507 4.07325 
130 1 5.431 19.0085 2.7155 
135 1 9.50425 17.6507 4.07325 
138 1 10.862 19.0085 2.7155 
143 1 14.9352 17.6507 4.07325 
146 1 16.293 19.0085 2.7155 
151 1 20.3663 17.6507 4.07325 
154 1 21.724 19.0085 2.7155 
159 1 25.7973 17.6507 4.07325 
126 1 1.35775 20.3663 4.07325 
163 1 2.7155 21.724 2.7155 
134 1 6.78875 20.3663 4.07325 
171 1 8.1465 21.724 2.7155 
142 1 12.2197 20.3663 4.07325 
179 1 13.5775 21.724 2.7155 
150 1 17.6507 20.3663 4.07325 
187 1 19.0085 21.724 2.7155 
158 1 23.0817 20.3663 4.07325 
195 1 24.4395 21.724 2.7155 
162 1 0 24.4395 2.7155 
167 1 4.07325 23.0817 4.07325 
170 1 5.431 24.4395 2.7155 
175 1 9.50425 23.0817 4.07325 
178 1 10.862 24.4395 2.7155 
183 1 14.9352 23.0817 4.07325 
186 1 16.293 24.4395 2.7155 
191 1 20.3663 23.0817 4.07325 
194 1 21.724 24.4395 2.7155 
199 1 25.7973 23.0817 4.07325 
166 1 1.35775 25.7973 4.07325 
174 1 6.78875 25.7973 4.07325 
182 1 12.2197 25.7973 4.07325 
190 1 17.6507 25.7973 4.07325 
198 1 23.0817 25.7973 4.07325 
201 1 0 0 5.431 
205 1 1.35775 1.35775 6.78875 
209 1 5.431 0 5.431 
213 1 6.78875 1.35775 6.78875 
217 1 10.862 0 5.431 
221 1 12.2197 1.35775 6.78875 
225 1 16.293 0 5.431 
229 1 17.6507 1.35775 6.78875 
233 1 21.724 0 5.431 
237 1 23.0817 1.35775 6.78875 
204 1 2.7155 2.7155 5.431 
208 1 4.07325 4.07325 6.78875 
212 1 8.1465 2.7155 5.431 
216 1 9.50425 4.07325 6.78875 
220 1 13.5775 2.7155 5.431 
224 1 14.9352 4.07325 6.78875 
228 1 19.0085 2.7155 5.431 
232 1 20.3663 4.07325 6.78875 
236 1 24.4395 2.7155 5.431 
240 1 25.7973 4.07325 6.78875 
241 1 0 5.431 5.431 
245 1 1.35775 6.78875 6.78875 
249 1 5.431 5.431 5.431 
253 1 6.78875 6.78875 6.78875 
257 1 10.862 5.431 5.431 
261 1 12.2197 6.78875 6.78875 
265 1 16.293 5.431 5.431 
269 1 17.6507 6.78875 6.78875 
273 1 21.724 5.431 5.431 
277 1 23.0817 6.78875 6.78875 
244 1 2.7155 8.1465 5.431 
248 1 4.07325 9.50425 6.78875 
252 1 8.1465 8.1465 5.431 
256 1 9.50425 9.50425 6.78875 
260 1 13.5775 8.1465 5.431 
264 1 14.9352 9.50425 6.78875 
268 1 19.0085 8.1465 5.431 
272 1 20.3663 9.50425 6.78875 
276 1 24.4395 8.1465 5.431 
280 1 25.7973 9.50425 6.78875 
281 1 0 10.862 5.431 
285 1 1.35775 12.2197 6.78875 
289 1 5.431 10.862 5.431 
293 1 6.78875 12.2197 6.78875 
297 1 10.862 10.862 5.431 
301 1 12.2197 12.2197 6.78875 
305 1 16.293 10.862 5.431 
309 1 17.6507 12.2197 6.78875 
313 1 21.724 10.862 5.431 
317 1 23.0817 12.2197 6.78875 
284 1 2.7155 13.5775 5.431 
292 1 8.1465 13.5775 5.431 
300 1 13.5775 13.5775 5.431 
308 1 19.0085 13.5775 5.431 
316 1 24.4395 13.5775 5.431 
321 1 0 16.293 5.431 
288 1 4.07325 14.9352 6.78875 
329 1 5.431 16.293 5.431 
296 1 9.50425 14.9352 6.78875 
337 1 10.862 16.293 5.431 
304 1 14.9352 14.9352 6.78875 
345 1 16.293 16.293 5.431 
312 1 20.3663 14.9352 6.78875 
353 1 21.724 16.293 5.431 
320 1 25.7973 14.9352 6.78875 
325 1 1.35775 17.6507 6.78875 
324 1 2.7155 19.0085 5.431 
333 1 6.78875 17.6507 6.78875 
332 1 8.1465 19.0085 5.431 
341 1 12.2197 17.6507 6.78875 
340 1 13.5775 19.0085 5.431 
348 1 19.0085 19.0085 5.431 
349 1 17.6507 17.6507 6.78875 
356 1 24.4395 19.0085 5.431 
357 1 23.0817 17.6507 6.78875 
361 1 0 21.724 5.431 
328 1 4.07325 20.3663 6.78875 
369 1 5.431 21.724 5.431 
336 1 9.50425 20.3663 6.78875 
377 1 10.862 21.724 5.431 
344 1 14.9352 20.3663 6.78875 
385 1 16.293 21.724 5.431 
352 1 20.3663 20.3663 6.78875 
393 1 21.724 21.724 5.431 
360 1 25.7973 20.3663 6.78875 
365 1 1.35775 23.0817 6.78875 
364 1 2.7155 24.4395 5.431 
373 1 6.78875 23.0817 6.78875 
372 1 8.1465 24.4395 5.431 
381 1 12.2197 23.0817 6.78875 
380 1 13.5775 24.4395 5.431 
388 1 19.0085 24.4395 5.431 
389 1 17.6507 23.0817 6.78875 
396 1 24.4395 24.4395 5.431 
397 1 23.0817 23.0817 6.78875 
368 1 4.07325 25.7973 6.78875 
376 1 9.50425 25.7973 6.78875 
384 1 14.9352 25.7973 6.78875 
392 1 20.3663 25.7973 6.78875 
400 1 25.7973 25.7973 6.78875 
203 1 2.7155 0 8.1465 
207 1 4.07325 1.35775 9.50425 
211 1 8.1465 0 8.1465 
215 1 9.50425 1.35775 9.50425 
219 1 13.5775 0 8.1465 
223 1 14.9352 1.35775 9.50425 
227 1 19.0085 0 8.1465 
231 1 20.3663 1.35775 9.50425 
235 1 24.4395 0 8.1465 
239 1 25.7973 1.35775 9.50425 
202 1 0 2.7155 8.1465 
206 1 1.35775 4.07325 9.50425 
210 1 5.431 2.7155 8.1465 
214 1 6.78875 4.07325 9.50425 
218 1 10.862 2.7155 8.1465 
222 1 12.2197 4.07325 9.50425 
226 1 16.293 2.7155 8.1465 
230 1 17.6507 4.07325 9.50425 
234 1 21.724 2.7155 8.1465 
238 1 23.0817 4.07325 9.50425 
243 1 2.7155 5.431 8.1465 
247 1 4.07325 6.78875 9.50425 
251 1 8.1465 5.431 8.1465 
255 1 9.50425 6.78875 9.50425 
259 1 13.5775 5.431 8.1465 
263 1 14.9352 6.78875 9.50425 
267 1 19.0085 5.431 8.1465 
271 1 20.3663 6.78875 9.50425 
275 1 24.4395 5.431 8.1465 
279 1 25.7973 6.78875 9.50425 
242 1 0 8.1465 8.1465 
246 1 1.35775 9.50425 9.50425 
250 1 5.431 8.1465 8.1465 
254 1 6.78875 9.50425 9.50425 
258 1 10.862 8.1465 8.1465 
262 1 12.2197 9.50425 9.50425 
266 1 16.293 8.1465 8.1465 
270 1 17.6507 9.50425 9.50425 
274 1 21.724 8.1465 8.1465 
278 1 23.0817 9.50425 9.50425 
283 1 2.7155 10.862 8.1465 
287 1 4.07325 12.2197 9.50425 
291 1 8.1465 10.862 8.1465 
295 1 9.50425 12.2197 9.50425 
299 1 13.5775 10.862 8.1465 
303 1 14.9352 12.2197 9.50425 
307 1 19.0085 10.862 8.1465 
311 1 20.3663 12.2197 9.50425 
315 1 24.4395 10.862 8.1465 
319 1 25.7973 12.2197 9.50425 
282 1 0 13.5775 8.1465 
290 1 5.431 13.5775 8.1465 
298 1 10.862 13.5775 8.1465 
306 1 16.293 13.5775 8.1465 
314 1 21.724 13.5775 8.1465 
286 1 1.35775 14.9352 9.50425 
323 1 2.7155 16.293 8.1465 
294 1 6.78875 14.9352 9.50425 
331 1 8.1465 16.293 8.1465 
302 1 12.2197 14.9352 9.50425 
339 1 13.5775 16.293 8.1465 
310 1 17.6507 14.9352 9.50425 
347 1 19.0085 16.293 8.1465 
318 1 23.0817 14.9352 9.50425 
355 1 24.4395 16.293 8.1465 
322 1 0 19.0085 8.1465 
327 1 4.07325 17.6507 9.50425 
330 1 5.431 19.0085 8.1465 
335 1 9.50425 17.6507 9.50425 
338 1 10.862 19.0085 8.1465 
343 1 14.9352 17.6507 9.50425 
346 1 16.293 19.0085 8.1465 
351 1 20.3663 17.6507 9.50425 
354 1 21.724 19.0085 8.1465 
359 1 25.7973 17.6507 9.50425 
326 1 1.35775 20.3663 9.50425 
363 1 2.7155 21.724 8.1465 
334 1 6.78875 20.3663 9.50425 
371 1 8.1465 21.724 8.1465 
342 1 12.2197 20.3663 9.50425 
379 1 13.5775 21.724 8.1465 
350 1 17.6507 20.3663 9.50425 
387 1 19.0085 21.724 8.1465 
358 1 23.0817 20.3663 9.50425 
395 1 24.4395 21.724 8.1465 
362 1 0 24.4395 8.1465 
367 1 4.07325 23.0817 9.50425 
370 1 5.431 24.4395 8.1465 
375 1 9.50425 23.0817 9.50425 
378 1 10.862 24.4395 8.1465 
383 1 14.9352 23.0817 9.50425 
386 1 16.293 24.4395 8.1465 
391 1 20.3663 23.0817 9.50425 
394 1 21.724 24.4395 8.1465 
399 1 25.7973 23.0817 9.50425 
366 1 1.35775 25.7973 9.50425 
374 1 6.78875 25.7973 9.50425 
382 1 12.2197 25.7973 9.50425 
390 1 17.6507 25.7973 9.50425 
398 1 23.0817 25.7973 9.50425 
401 1 0 0 10.862 
405 1 1.35775 1.35775 12.2197 
409 1 5.431 0 10.862 
413 1 6.78875 1.35775 12.2197 
417 1 10.862 0 10.862 
421 1 12.2197 1.35775 12.2197 
425 1 16.293 0 10.862 
429 1 17.6507 1.35775 12.2197 
433 1 21.724 0 10.862 
437 1 23.0817 1.35775 12.2197 
404 1 2.7155 2.7155 10.862 
408 1 4.07325 4.07325 12.2197 
412 1 8.1465 2.7155 10.862 
416 1 9.50425 4.07325 12.2197 
420 1 13.5775 2.7155 10.862 
424 1 14.9352 4.07325 12.2197 
428 1 19.0085 2.7155 10.862 
432 1 20.3663 4.07325 12.2197 
436 1 24.4395 2.7155 10.862 
440 1 25.7973 4.07325 12.2197 
441 1 0 5.431 10.862 
445 1 1.35775 6.78875 12.2197 
449 1 5.431 5.431 10.862 
453 1 6.78875 6.78875 12.2197 
457 1 10.862 5.431 10.862 
461 1 12.2197 6.78875 12.2197 
465 1 16.293 5.431 10.862 
469 1 17.6507 6.78875 12.2197 
473 1 21.724 5.431 10.862 
477 1 23.0817 6.78875 12.2197 
444 1 2.7155 8.1465 10.862 
448 1 4.07325 9.50425 12.2197 
452 1 8.1465 8.1465 10.862 
456 1 9.50425 9.50425 12.2197 
460 1 13.5775 8.1465 10.862 
464 1 14.9352 9.50425 12.2197 
468 1 19.0085 8.1465 10.862 
472 1 20.3663 9.50425 12.2197 
476 1 24.4395 8.1465 10.862 
480 1 25.7973 9.50425 12.2197 
481 1 0 10.862 10.862 
485 1 1.35775 12.2197 12.2197 
489 1 5.431 10.862 10.862 
493 1 6.78875 12.2197 12.2197 
497 1 10.862 10.862 10.862 
501 1 12.2197 12.2197 12.2197 
505 1 16.293 10.862 10.862 
509 1 17.6507 12.2197 12.2197 
513 1 21.724 10.862 10.862 
517 1 23.0817 12.2197 12.2197 
484 1 2.7155 13.5775 10.862 
492 1 8.1465 13.5775 10.862 
500 1 13.5775 13.5775 10.862 
508 1 19.0085 13.5775 10.862 
516 1 24.4395 13.5775 10.862 
521 1 0 16.293 10.862 
488 1 4.07325 14.9352 12.2197 
529 1 5.431 16.293 10.862 
496 1 9.50425 14.9352 12.2197 
537 1 10.862 16.293 10.862 
504 1 14.9352 14.9352 12.2197 
545 1 16.293 16.293 10.862 
512 1 20.3663 14.9352 12.2197 
553 1 21.724 16.293 10.862 
520 1 25.7973 14.9352 12.2197 
525 1 1.35775 17.6507 12.2197 
524 1 2.7155 19.0085 10.862 
533 1 6.78875 17.6507 12.2197 
532 1 8.1465 19.0085 10.862 
541 1 12.2197 17.6507 12.2197 
540 1 13.5775 19.0085 10.862 
548 1 19.0085 19.0085 10.862 
549 1 17.6507 17.6507 12.2197 
556 1 24.4395 19.0085 10.862 
557 1 23.0817 17.6507 12.2197 
561 1 0 21.724 10.862 
528 1 4.07325 20.3663 12.2197 
569 1 5.431 21.724 10.862 
536 1 9.50425 20.3663 12.2197 
577 1 10.862 21.724 10.862 
544 1 14.9352 20.3663 12.2197 
585 1 16.293 21.724 10.862 
552 1 20.3663 20.3663 12.2197 
593 1 21.724 21.724 10.862 
560 1 25.7973 20.3663 12.2197 
565 1 1.35775 23.0817 12.2197 
564 1 2.7155 24.4395 10.862 
573 1 6.78875 23.0817 12.2197 
572 1 8.1465 24.4395 10.862 
581 1 12.2197 23.0817 12.2197 
580 1 13.5775 24.4395 10.862 
588 1 19.0085 24.4395 10.862 
589 1 17.6507 23.0817 12.2197 
596 1 24.4395 24.4395 10.862 
597 1 23.0817 23.0817 12.2197 
568 1 4.07325 25.7973 12.2197 
576 1 9.50425 25.7973 12.2197 
584 1 14.9352 25.7973 12.2197 
592 1 20.3663 25.7973 12.2197 
600 1 25.7973 25.7973 12.2197 
403 1 2.7155 0 13.5775 
411 1 8.1465 0 13.5775 
419 1 13.5775 0 13.5775 
427 1 19.0085 0 13.5775 
435 1 24.4395 0 13.5775 
402 1 0 2.7155 13.5775 
410 1 5.431 2.7155 13.5775 
418 1 10.862 2.7155 13.5775 
426 1 16.293 2.7155 13.5775 
434 1 21.724 2.7155 13.5775 
443 1 2.7155 5.431 13.5775 
451 1 8.1465 5.431 13.5775 
459 1 13.5775 5.431 13.5775 
467 1 19.0085 5.431 13.5775 
475 1 24.4395 5.431 13.5775 
442 1 0 8.1465 13.5775 
450 1 5.431 8.1465 13.5775 
458 1 10.862 8.1465 13.5775 
466 1 16.293 8.1465 13.5775 
474 1 21.724 8.1465 13.5775 
483 1 2.7155 10.862 13.5775 
491 1 8.1465 10.862 13.5775 
499 1 13.5775 10.862 13.5775 
507 1 19.0085 10.862 13.5775 
515 1 24.4395 10.862 13.5775 
482 1 0 13.5775 13.5775 
490 1 5.431 13.5775 13.5775 
498 1 10.862 13.5775 13.5775 
506 1 16.293 13.5775 13.5775 
514 1 21.724 13.5775 13.5775 
523 1 2.7155 16.293 13.5775 
531 1 8.1465 16.293 13.5775 
539 1 13.5775 16.293 13.5775 
547 1 19.0085 16.293 13.5775 
555 1 24.4395 16.293 13.5775 
522 1 0 19.0085 13.5775 
530 1 5.431 19.0085 13.5775 
538 1 10.862 19.0085 13.5775 
546 1 16.293 19.0085 13.5775 
554 1 21.724 19.0085 13.5775 
563 1 2.7155 21.724 13.5775 
571 1 8.1465 21.724 13.5775 
579 1 13.5775 21.724 13.5775 
587 1 19.0085 21.724 13.5775 
595 1 24.4395 21.724 13.5775 
562 1 0 24.4395 13.5775 
570 1 5.431 24.4395 13.5775 
578 1 10.862 24.4395 13.5775 
586 1 16.293 24.4395 13.5775 
594 1 21.724 24.4395 13.5775 
601 1 0 0 16.293 
407 1 4.07325 1.35775 14.9352 
609 1 5.431 0 16.293 
415 1 9.50425 1.35775 14.9352 
617 1 10.862 0 16.293 
423 1 14.9352 1.35775 14.9352 
625 1 16.293 0 16.293 
431 1 20.3663 1.35775 14.9352 
633 1 21.724 0 16.293 
439 1 25.7973 1.35775 14.9352 
406 1 1.35775 4.07325 14.9352 
604 1 2.7155 2.7155 16.293 
414 1 6.78875 4.07325 14.9352 
612 1 8.1465 2.7155 16.293 
422 1 12.2197 4.07325 14.9352 
620 1 13.5775 2.7155 16.293 
430 1 17.6507 4.07325 14.9352 
628 1 19.0085 2.7155 16.293 
438 1 23.0817 4.07325 14.9352 
636 1 24.4395 2.7155 16.293 
641 1 0 5.431 16.293 
447 1 4.07325 6.78875 14.9352 
649 1 5.431 5.431 16.293 
455 1 9.50425 6.78875 14.9352 
657 1 10.862 5.431 16.293 
463 1 14.9352 6.78875 14.9352 
665 1 16.293 5.431 16.293 
471 1 20.3663 6.78875 14.9352 
673 1 21.724 5.431 16.293 
479 1 25.7973 6.78875 14.9352 
446 1 1.35775 9.50425 14.9352 
644 1 2.7155 8.1465 16.293 
454 1 6.78875 9.50425 14.9352 
652 1 8.1465 8.1465 16.293 
462 1 12.2197 9.50425 14.9352 
660 1 13.5775 8.1465 16.293 
470 1 17.6507 9.50425 14.9352 
668 1 19.0085 8.1465 16.293 
478 1 23.0817 9.50425 14.9352 
676 1 24.4395 8.1465 16.293 
681 1 0 10.862 16.293 
487 1 4.07325 12.2197 14.9352 
689 1 5.431 10.862 16.293 
495 1 9.50425 12.2197 14.9352 
697 1 10.862 10.862 16.293 
503 1 14.9352 12.2197 14.9352 
705 1 16.293 10.862 16.293 
511 1 20.3663 12.2197 14.9352 
713 1 21.724 10.862 16.293 
519 1 25.7973 12.2197 14.9352 
684 1 2.7155 13.5775 16.293 
692 1 8.1465 13.5775 16.293 
700 1 13.5775 13.5775 16.293 
708 1 19.0085 13.5775 16.293 
716 1 24.4395 13.5775 16.293 
486 1 1.35775 14.9352 14.9352 
721 1 0 16.293 16.293 
494 1 6.78875 14.9352 14.9352 
729 1 5.431 16.293 16.293 
502 1 12.2197 14.9352 14.9352 
737 1 10.862 16.293 16.293 
745 1 16.293 16.293 16.293 
510 1 17.6507 14.9352 14.9352 
753 1 21.724 16.293 16.293 
518 1 23.0817 14.9352 14.9352 
527 1 4.07325 17.6507 14.9352 
724 1 2.7155 19.0085 16.293 
535 1 9.50425 17.6507 14.9352 
732 1 8.1465 19.0085 16.293 
740 1 13.5775 19.0085 16.293 
543 1 14.9352 17.6507 14.9352 
748 1 19.0085 19.0085 16.293 
551 1 20.3663 17.6507 14.9352 
756 1 24.4395 19.0085 16.293 
559 1 25.7973 17.6507 14.9352 
526 1 1.35775 20.3663 14.9352 
761 1 0 21.724 16.293 
534 1 6.78875 20.3663 14.9352 
769 1 5.431 21.724 16.293 
542 1 12.2197 20.3663 14.9352 
777 1 10.862 21.724 16.293 
785 1 16.293 21.724 16.293 
550 1 17.6507 20.3663 14.9352 
793 1 21.724 21.724 16.293 
558 1 23.0817 20.3663 14.9352 
567 1 4.07325 23.0817 14.9352 
764 1 2.7155 24.4395 16.293 
575 1 9.50425 23.0817 14.9352 
772 1 8.1465 24.4395 16.293 
780 1 13.5775 24.4395 16.293 
583 1 14.9352 23.0817 14.9352 
788 1 19.0085 24.4395 16.293 
591 1 20.3663 23.0817 14.9352 
796 1 24.4395 24.4395 16.293 
599 1 25.7973 23.0817 14.9352 
566 1 1.35775 25.7973 14.9352 
574 1 6.78875 25.7973 14.9352 
582 1 12.2197 25.7973 14.9352 
590 1 17.6507 25.7973 14.9352 
598 1 23.0817 25.7973 14.9352 
605 1 1.35775 1.35775 17.6507 
603 1 2.7155 0 19.0085 
613 1 6.78875 1.35775 17.6507 
611 1 8.1465 0 19.0085 
621 1 12.2197 1.35775 17.6507 
619 1 13.5775 0 19.0085 
627 1 19.0085 0 19.0085 
629 1 17.6507 1.35775 17.6507 
635 1 24.4395 0 19.0085 
637 1 23.0817 1.35775 17.6507 
602 1 0 2.7155 19.0085 
608 1 4.07325 4.07325 17.6507 
610 1 5.431 2.7155 19.0085 
616 1 9.50425 4.07325 17.6507 
618 1 10.862 2.7155 19.0085 
624 1 14.9352 4.07325 17.6507 
626 1 16.293 2.7155 19.0085 
632 1 20.3663 4.07325 17.6507 
634 1 21.724 2.7155 19.0085 
640 1 25.7973 4.07325 17.6507 
645 1 1.35775 6.78875 17.6507 
643 1 2.7155 5.431 19.0085 
653 1 6.78875 6.78875 17.6507 
651 1 8.1465 5.431 19.0085 
661 1 12.2197 6.78875 17.6507 
659 1 13.5775 5.431 19.0085 
667 1 19.0085 5.431 19.0085 
669 1 17.6507 6.78875 17.6507 
675 1 24.4395 5.431 19.0085 
677 1 23.0817 6.78875 17.6507 
642 1 0 8.1465 19.0085 
648 1 4.07325 9.50425 17.6507 
650 1 5.431 8.1465 19.0085 
656 1 9.50425 9.50425 17.6507 
658 1 10.862 8.1465 19.0085 
664 1 14.9352 9.50425 17.6507 
666 1 16.293 8.1465 19.0085 
672 1 20.3663 9.50425 17.6507 
674 1 21.724 8.1465 19.0085 
680 1 25.7973 9.50425 17.6507 
685 1 1.35775 12.2197 17.6507 
683 1 2.7155 10.862 19.0085 
693 1 6.78875 12.2197 17.6507 
691 1 8.1465 10.862 19.0085 
701 1 12.2197 12.2197 17.6507 
699 1 13.5775 10.862 19.0085 
707 1 19.0085 10.862 19.0085 
709 1 17.6507 12.2197 17.6507 
715 1 24.4395 10.862 19.0085 
717 1 23.0817 12.2197 17.6507 
682 1 0 13.5775 19.0085 
690 1 5.431 13.5775 19.0085 
698 1 10.862 13.5775 19.0085 
706 1 16.293 13.5775 19.0085 
714 1 21.724 13.5775 19.0085 
688 1 4.07325 14.9352 17.6507 
723 1 2.7155 16.293 19.0085 
696 1 9.50425 14.9352 17.6507 
731 1 8.1465 16.293 19.0085 
739 1 13.5775 16.293 19.0085 
704 1 14.9352 14.9352 17.6507 
747 1 19.0085 16.293 19.0085 
712 1 20.3663 14.9352 17.6507 
755 1 24.4395 16.293 19.0085 
720 1 25.7973 14.9352 17.6507 
722 1 0 19.0085 19.0085 
725 1 1.35775 17.6507 17.6507 
730 1 5.431 19.0085 19.0085 
733 1 6.78875 17.6507 17.6507 
738 1 10.862 19.0085 19.0085 
741 1 12.2197 17.6507 17.6507 
746 1 16.293 19.0085 19.0085 
749 1 17.6507 17.6507 17.6507 
754 1 21.724 19.0085 19.0085 
757 1 23.0817 17.6507 17.6507 
728 1 4.07325 20.3663 17.6507 
763 1 2.7155 21.724 19.0085 
736 1 9.50425 20.3663 17.6507 
771 1 8.1465 21.724 19.0085 
779 1 13.5775 21.724 19.0085 
744 1 14.9352 20.3663 17.6507 
787 1 19.0085 21.724 19.0085 
752 1 20.3663 20.3663 17.6507 
795 1 24.4395 21.724 19.0085 
760 1 25.7973 20.3663 17.6507 
762 1 0 24.4395 19.0085 
765 1 1.35775 23.0817 17.6507 
770 1 5.431 24.4395 19.0085 
773 1 6.78875 23.0817 17.6507 
778 1 10.862 24.4395 19.0085 
781 1 12.2197 23.0817 17.6507 
786 1 16.293 24.4395 19.0085 
789 1 17.6507 23.0817 17.6507 
794 1 21.724 24.4395 19.0085 
797 1 23.0817 23.0817 17.6507 
768 1 4.07325 25.7973 17.6507 
776 1 9.50425 25.7973 17.6507 
784 1 14.9352 25.7973 17.6507 
792 1 20.3663 25.7973 17.6507 
800 1 25.7973 25.7973 17.6507 
801 1 0 0 21.724 
607 1 4.07325 1.35775 20.3663 
809 1 5.431 0 21.724 
615 1 9.50425 1.35775 20.3663 
817 1 10.862 0 21.724 
623 1 14.9352 1.35775 20.3663 
825 1 16.293 0 21.724 
631 1 20.3663 1.35775 20.3663 
833 1 21.724 0 21.724 
639 1 25.7973 1.35775 20.3663 
606 1 1.35775 4.07325 20.3663 
804 1 2.7155 2.7155 21.724 
614 1 6.78875 4.07325 20.3663 
812 1 8.1465 2.7155 21.724 
622 1 12.2197 4.07325 20.3663 
820 1 13.5775 2.7155 21.724 
630 1 17.6507 4.07325 20.3663 
828 1 19.0085 2.7155 21.724 
638 1 23.0817 4.07325 20.3663 
836 1 24.4395 2.7155 21.724 
841 1 0 5.431 21.724 
647 1 4.07325 6.78875 20.3663 
849 1 5.431 5.431 21.724 
655 1 9.50425 6.78875 20.3663 
857 1 10.862 5.431 21.724 
663 1 14.9352 6.78875 20.3663 
865 1 16.293 5.431 21.724 
671 1 20.3663 6.78875 20.3663 
873 1 21.724 5.431 21.724 
679 1 25.7973 6.78875 20.3663 
646 1 1.35775 9.50425 20.3663 
844 1 2.7155 8.1465 21.724 
654 1 6.78875 9.50425 20.3663 
852 1 8.1465 8.1465 21.724 
662 1 12.2197 9.50425 20.3663 
860 1 13.5775 8.1465 21.724 
670 1 17.6507 9.50425 20.3663 
868 1 19.0085 8.1465 21.724 
678 1 23.0817 9.50425 20.3663 
876 1 24.4395 8.1465 21.724 
881 1 0 10.862 21.724 
687 1 4.07325 12.2197 20.3663 
889 1 5.431 10.862 21.724 
695 1 9.50425 12.2197 20.3663 
897 1 10.862 10.862 21.724 
703 1 14.9352 12.2197 20.3663 
905 1 16.293 10.862 21.724 
711 1 20.3663 12.2197 20.3663 
913 1 21.724 10.862 21.724 
719 1 25.7973 12.2197 20.3663 
884 1 2.7155 13.5775 21.724 
892 1 8.1465 13.5775 21.724 
900 1 13.5775 13.5775 21.724 
908 1 19.0085 13.5775 21.724 
916 1 24.4395 13.5775 21.724 
686 1 1.35775 14.9352 20.3663 
921 1 0 16.293 21.724 
694 1 6.78875 14.9352 20.3663 
929 1 5.431 16.293 21.724 
702 1 12.2197 14.9352 20.3663 
937 1 10.862 16.293 21.724 
945 1 16.293 16.293 21.724 
710 1 17.6507 14.9352 20.3663 
953 1 21.724 16.293 21.724 
718 1 23.0817 14.9352 20.3663 
727 1 4.07325 17.6507 20.3663 
924 1 2.7155 19.0085 21.724 
735 1 9.50425 17.6507 20.3663 
932 1 8.1465 19.0085 21.724 
940 1 13.5775 19.0085 21.724 
743 1 14.9352 17.6507 20.3663 
948 1 19.0085 19.0085 21.724 
751 1 20.3663 17.6507 20.3663 
956 1 24.4395 19.0085 21.724 
759 1 25.7973 17.6507 20.3663 
726 1 1.35775 20.3663 20.3663 
961 1 0 21.724 21.724 
734 1 6.78875 20.3663 20.3663 
969 1 5.431 21.724 21.724 
742 1 12.2197 20.3663 20.3663 
977 1 10.862 21.724 21.724 
985 1 16.293 21.724 21.724 
750 1 17.6507 20.3663 20.3663 
993 1 21.724 21.724 21.724 
758 1 23.0817 20.3663 20.3663 
767 1 4.07325 23.0817 20.3663 
964 1 2.7155 24.4395 21.724 
775 1 9.50425 23.0817 20.3663 
972 1 8.1465 24.4395 21.724 
980 1 13.5775 24.4395 21.724 
783 1 14.9352 23.0817 20.3663 
988 1 19.0085 24.4395 21.724 
791 1 20.3663 23.0817 20.3663 
996 1 24.4395 24.4395 21.724 
799 1 25.7973 23.0817 20.3663 
766 1 1.35775 25.7973 20.3663 
774 1 6.78875 25.7973 20.3663 
782 1 12.2197 25.7973 20.3663 
790 1 17.6507 25.7973 20.3663 
798 1 23.0817 25.7973 20.3663 
805 1 1.35775 1.35775 23.0817 
803 1 2.7155 0 24.4395 
813 1 6.78875 1.35775 23.0817 
811 1 8.1465 0 24.4395 
821 1 12.2197 1.35775 23.0817 
819 1 13.5775 0 24.4395 
827 1 19.0085 0 24.4395 
829 1 17.6507 1.35775 23.0817 
835 1 24.4395 0 24.4395 
837 1 23.0817 1.35775 23.0817 
802 1 0 2.7155 24.4395 
808 1 4.07325 4.07325 23.0817 
810 1 5.431 2.7155 24.4395 
816 1 9.50425 4.07325 23.0817 
818 1 10.862 2.7155 24.4395 
824 1 14.9352 4.07325 23.0817 
826 1 16.293 2.7155 24.4395 
832 1 20.3663 4.07325 23.0817 
834 1 21.724 2.7155 24.4395 
840 1 25.7973 4.07325 23.0817 
845 1 1.35775 6.78875 23.0817 
843 1 2.7155 5.431 24.4395 
853 1 6.78875 6.78875 23.0817 
851 1 8.1465 5.431 24.4395 
861 1 12.2197 6.78875 23.0817 
859 1 13.5775 5.431 24.4395 
867 1 19.0085 5.431 24.4395 
869 1 17.6507 6.78875 23.0817 
875 1 24.4395 5.431 24.4395 
877 1 23.0817 6.78875 23.0817 
842 1 0 8.1465 24.4395 
848 1 4.07325 9.50425 23.0817 
850 1 5.431 8.1465 24.4395 
856 1 9.50425 9.50425 23.0817 
858 1 10.862 8.1465 24.4395 
864 1 14.9352 9.50425 23.0817 
866 1 16.293 8.1465 24.4395 
872 1 20.3663 9.50425 23.0817 
874 1 21.724 8.1465 24.4395 
880 1 25.7973 9.50425 23.0817 
885 1 1.35775 12.2197 23.0817 
883 1 2.7155 10.862 24.4395 
893 1 6.78875 12.2197 23.0817 
891 1 8.1465 10.862 24.4395 
901 1 12.2197 12.2197 23.0817 
899 1 13.5775 10.862 24.4395 
907 1 19.0085 10.862 24.4395 
909 1 17.6507 12.2197 23.0817 
915 1 24.4395 10.862 24.4395 
917 1 23.0817 12.2197 23.0817 
882 1 0 13.5775 24.4395 
890 1 5.431 13.5775 24.4395 
898 1 10.862 13.5775 24.4395 
906 1 16.293 13.5775 24.4395 
914 1 21.724 13.5775 24.4395 
888 1 4.07325 14.9352 23.0817 
923 1 2.7155 16.293 24.4395 
896 1 9.50425 14.9352 23.0817 
931 1 8.1465 16.293 24.4395 
939 1 13.5775 16.293 24.4395 
904 1 14.9352 14.9352 23.0817 
947 1 19.0085 16.293 24.4395 
912 1 20.3663 14.9352 23.0817 
955 1 24.4395 16.293 24.4395 
920 1 25.7973 14.9352 23.0817 
922 1 0 19.0085 24.4395 
925 1 1.35775 17.6507 23.0817 
930 1 5.431 19.0085 24.4395 
933 1 6.78875 17.6507 23.0817 
938 1 10.862 19.0085 24.4395 
941 1 12.2197 17.6507 23.0817 
946 1 16.293 19.0085 24.4395 
949 1 17.6507 17.6507 23.0817 
954 1 21.724 19.0085 24.4395 
957 1 23.0817 17.6507 23.0817 
928 1 4.07325 20.3663 23.0817 
963 1 2.7155 21.724 24.4395 
936 1 9.50425 20.3663 23.0817 
971 1 8.1465 21.724 24.4395 
979 1 13.5775 21.724 24.4395 
944 1 14.9352 20.3663 23.0817 
987 1 19.0085 21.724 24.4395 
952 1 20.3663 20.3663 23.0817 
995 1 24.4395 21.724 24.4395 
960 1 25.7973 20.3663 23.0817 
962 1 0 24.4395 24.4395 
965 1 1.35775 23.0817 23.0817 
970 1 5.431 24.4395 24.4395 
973 1 6.78875 23.0817 23.0817 
978 1 10.862 24.4395 24.4395 
981 1 12.2197 23.0817 23.0817 
986 1 16.293 24.4395 24.4395 
989 1 17.6507 23.0817 23.0817 
994 1 21.724 24.4395 24.4395 
997 1 23.0817 23.0817 23.0817 
968 1 4.07325 25.7973 23.0817 
976 1 9.50425 25.7973 23.0817 
984 1 14.9352 25.7973 23.0817 
992 1 20.3663 25.7973 23.0817 
1000 1 25.7973 25.7973 23.0817 
807 1 4.07325 1.35775 25.7973 
815 1 9.50425 1.35775 25.7973 
823 1 14.9352 1.35775 25.7973 
831 1 20.3663 1.35775 25.7973 
839 1 25.7973 1.35775 25.7973 
806 1 1.35775 4.07325 25.7973 
814 1 6.78875 4.07325 25.7973 
822 1 12.2197 4.07325 25.7973 
830 1 17.6507 4.07325 25.7973 
838 1 23.0817 4.07325 25.7973 
847 1 4.07325 6.78875 25.7973 
855 1 9.50425 6.78875 25.7973 
863 1 14.9352 6.78875 25.7973 
871 1 20.3663 6.78875 25.7973 
879 1 25.7973 6.78875 25.7973 
846 1 1.35775 9.50425 25.7973 
854 1 6.78875 9.50425 25.7973 
862 1 12.2197 9.50425 25.7973 
870 1 17.6507 9.50425 25.7973 
878 1 23.0817 9.50425 25.7973 
887 1 4.07325 12.2197 25.7973 
895 1 9.50425 12.2197 25.7973 
903 1 14.9352 12.2197 25.7973 
911 1 20.3663 12.2197 25.7973 
919 1 25.7973 12.2197 25.7973 
886 1 1.35775 14.9352 25.7973 
894 1 6.78875 14.9352 25.7973 
902 1 12.2197 14.9352 25.7973 
910 1 17.6507 14.9352 25.7973 
918 1 23.0817 14.9352 25.7973 
927 1 4.07325 17.6507 25.7973 
935 1 9.50425 17.6507 25.7973 
943 1 14.9352 17.6507 25.7973 
951 1 20.3663 17.6507 25.7973 
959 1 25.7973 17.6507 25.7973 
926 1 1.35775 20.3663 25.7973 
934 1 6.78875 20.3663 25.7973 
942 1 12.2197 20.3663 25.7973 
950 1 17.6507 20.3663 25.7973 
958 1 23.0817 20.3663 25.7973 
967 1 4.07325 23.0817 25.7973 
975 1 9.50425 23.0817 25.7973 
983 1 14.9352 23.0817 25.7973 
991 1 20.3663 23.0817 25.7973 
999 1 25.7973 23.0817 25.7973 
966 1 1.35775 25.7973 25.7973 
974 1 6.78875 25.7973 25.7973 
982 1 12.2197 25.7973 25.7973 
990 1 17.6507 25.7973 25.7973 
998 1 23.0817 25.7973 25.7973 
ITEM: TIMESTEP
10
ITEM: NUMBER OF ATOMS
1000
ITEM: BOX BOUNDS pp pp pp
0.0000000000000000e+00 2.7155000000000001e+01
0.0000000000000000e+00 2.7155000000000001e+01
0.0000000000000000e+00 2.7155000000000001e+01
ITEM: ATOMS id type x y z 
1 1 -0.0489142 -0.0771942 -0.0165088 
5 1 1.34317 1.30464 1.42722 
9 1 5.46611 -0.0467553 -0.00310486 
13 1 6.78053 1.42203 1.28976 
17 1 10.7867 -0.0484348 -0.0809766 
21 1 12.1369 1.39258 1.3139 
25 1 16.3059 0.0548572 0.026886 
29 1 17.6457 1.3727 1.42527 
33 1 21.7097 0.0563733 -0.0318624 
37 1 23.0519 1.43068 1.34345 
4 1 2.66525 2.77983 -0.0642697 
8 1 4.09456 4.06403 1.31592 
12 1 8.13915 2.68151 0.0312852 
16 1 9.44301 4.03934 1.41782 
20 1 13.5274 2.77193 0.0755667 
24 1 14.962 4.00086 1.31185 
28 1 18.9844 2.6755 0.0251392 
32 1 20.3453 4.04834 1.33401 